<?xml version="1.0" encoding="UTF-8"?>

<!-- generated on Tue Apr 14 13:40:04 2020 by Eclipse SUMO Version v1_1_0+0000-2147d155b1
<configuration xmlns:xsi="http://www.w3.org/2001/XMLSchema-instance" xsi:noNamespaceSchemaLocation="http://sumo.dlr.de/xsd/sumoConfiguration.xsd">

    <input>
        <net-file value="/home/julien/Documents/flow/flow/core/kernel/network/debug/cfg/ISSY_RL_train_20200414-1335181586864118.6150017.net.xml"/>
        <route-files value="/home/julien/Documents/flow/flow/core/kernel/network/debug/cfg/ISSY_RL_train_20200414-1335181586864118.6150017.rou.xml"/>
        <additional-files value="/home/julien/Documents/flow/flow/core/kernel/network/debug/cfg/ISSY_RL_train_20200414-1335181586864118.6150017.add.xml"/>
    </input>

    <output>
        <emission-output value="data/ISSY_RL_train_20200414-1335181586864118.6150017-emission.xml"/>
    </output>

    <time>
        <begin value="0"/>
        <step-length value="0.1"/>
    </time>

    <processing>
        <collision.check-junctions value="true"/>
        <time-to-teleport value="-1"/>
    </processing>

    <report>
        <no-step-log value="true"/>
    </report>

    <traci_server>
        <remote-port value="42847"/>
        <num-clients value="1"/>
    </traci_server>

    <random_number>
        <seed value="63545"/>
    </random_number>

    <gui_only>
        <gui-settings-file value="/home/julien/Documents/flow/flow/core/kernel/network/debug/cfg/ISSY_RL_train_20200414-1335181586864118.6150017.gui.cfg"/>
        <tracker-interval value="0.1"/>
    </gui_only>

</configuration>
-->

<emission-export xmlns:xsi="http://www.w3.org/2001/XMLSchema-instance" xsi:noNamespaceSchemaLocation="http://sumo.dlr.de/xsd/emission_file.xsd">
    <timestep time="0.00"/>
    <timestep time="0.10">
        <vehicle id="human_0" eclass="HBEFA3/PC_G_EU4" CO2="2624.72" CO="164.78" HC="0.81" NOx="1.20" PMx="0.07" fuel="1.13" electricity="0.00" noise="55.94" route="route-100822066_0" type="human" waiting="0.00" lane="-100822066_0" pos="5.00" speed="0.00" angle="177.41" x="288.87" y="305.79"/>
        <vehicle id="human_1" eclass="HBEFA3/PC_G_EU4" CO2="2624.72" CO="164.78" HC="0.81" NOx="1.20" PMx="0.07" fuel="1.13" electricity="0.00" noise="55.94" route="route-100822066_0" type="human" waiting="0.00" lane="-100822066_1" pos="5.00" speed="0.00" angle="177.40" x="292.06" y="305.93"/>
        <vehicle id="human_2" eclass="HBEFA3/PC_G_EU4" CO2="2624.72" CO="164.78" HC="0.81" NOx="1.20" PMx="0.07" fuel="1.13" electricity="0.00" noise="55.94" route="route-100822066_0" type="human" waiting="0.00" lane="-100822066_0" pos="54.60" speed="0.00" angle="177.41" x="291.10" y="256.24"/>
        <vehicle id="human_3" eclass="HBEFA3/PC_G_EU4" CO2="2624.72" CO="164.78" HC="0.81" NOx="1.20" PMx="0.07" fuel="1.13" electricity="0.00" noise="55.94" route="route-100822066_0" type="human" waiting="0.00" lane="-100822066_1" pos="54.60" speed="0.00" angle="177.40" x="294.30" y="256.38"/>
        <vehicle id="human_4" eclass="HBEFA3/PC_G_EU4" CO2="2624.72" CO="164.78" HC="0.81" NOx="1.20" PMx="0.07" fuel="1.13" electricity="0.00" noise="55.94" route="route155558218_0" type="human" waiting="0.00" lane="155558218_0" pos="8.94" speed="0.00" angle="78.17" x="138.37" y="31.57"/>
        <vehicle id="human_5" eclass="HBEFA3/PC_G_EU4" CO2="2624.72" CO="164.78" HC="0.81" NOx="1.20" PMx="0.07" fuel="1.13" electricity="0.00" noise="55.94" route="route155558218_0" type="human" waiting="0.00" lane="155558218_0" pos="58.54" speed="0.00" angle="78.17" x="186.92" y="41.74"/>
        <vehicle id="human_6" eclass="HBEFA3/PC_G_EU4" CO2="2624.72" CO="164.78" HC="0.81" NOx="1.20" PMx="0.07" fuel="1.13" electricity="0.00" noise="55.94" route="route155558218_0" type="human" waiting="0.00" lane="155558218_0" pos="108.15" speed="0.00" angle="78.17" x="235.46" y="51.91"/>
        <vehicle id="human_7" eclass="HBEFA3/PC_G_EU4" CO2="2624.72" CO="164.78" HC="0.81" NOx="1.20" PMx="0.07" fuel="1.13" electricity="0.00" noise="55.94" route="route155558218_0" type="human" waiting="0.00" lane="155558218_0" pos="157.75" speed="0.00" angle="78.17" x="284.01" y="62.08"/>
        <vehicle id="rl_0" eclass="HBEFA3/PC_G_EU4" CO2="2624.72" CO="164.78" HC="0.81" NOx="1.20" PMx="0.07" fuel="1.13" electricity="0.00" noise="55.94" route="route4794817_0" type="rl" waiting="0.00" lane="4794817_0" pos="5.00" speed="0.00" angle="114.03" x="4.57" y="205.26"/>
        <vehicle id="rl_1" eclass="HBEFA3/PC_G_EU4" CO2="2624.72" CO="164.78" HC="0.81" NOx="1.20" PMx="0.07" fuel="1.13" electricity="0.00" noise="55.94" route="route4794817_0" type="rl" waiting="0.00" lane="4794817_0" pos="55.11" speed="0.00" angle="114.03" x="50.33" y="184.85"/>
        <vehicle id="rl_2" eclass="HBEFA3/PC_G_EU4" CO2="2624.72" CO="164.78" HC="0.81" NOx="1.20" PMx="0.07" fuel="1.13" electricity="0.00" noise="55.94" route="route4794817_0" type="rl" waiting="0.00" lane="4794817_0" pos="103.71" speed="0.00" angle="114.03" x="94.72" y="165.06"/>
        <vehicle id="rl_3" eclass="HBEFA3/PC_G_EU4" CO2="2624.72" CO="164.78" HC="0.81" NOx="1.20" PMx="0.07" fuel="1.13" electricity="0.00" noise="55.94" route="route4794817_0" type="rl" waiting="0.00" lane="4794817_0" pos="152.31" speed="0.00" angle="114.03" x="139.11" y="145.26"/>
        <vehicle id="rl_4" eclass="HBEFA3/PC_G_EU4" CO2="2624.72" CO="164.78" HC="0.81" NOx="1.20" PMx="0.07" fuel="1.13" electricity="0.00" noise="55.94" route="route4794817_0" type="rl" waiting="0.00" lane="4794817_0" pos="200.92" speed="0.00" angle="113.29" x="183.69" y="125.92"/>
    </timestep>
    <timestep time="0.20">
        <vehicle id="human_0" eclass="HBEFA3/PC_G_EU4" CO2="2766.73" CO="163.15" HC="0.81" NOx="1.26" PMx="0.07" fuel="1.19" electricity="0.00" noise="67.44" route="route-100822066_0" type="human" waiting="0.00" lane="-100822066_0" pos="5.03" speed="0.26" angle="177.41" x="288.87" y="305.77"/>
        <vehicle id="human_1" eclass="HBEFA3/PC_G_EU4" CO2="2766.73" CO="163.15" HC="0.81" NOx="1.26" PMx="0.07" fuel="1.19" electricity="0.00" noise="67.44" route="route-100822066_0" type="human" waiting="0.00" lane="-100822066_1" pos="5.03" speed="0.26" angle="177.40" x="292.06" y="305.91"/>
        <vehicle id="human_2" eclass="HBEFA3/PC_G_EU4" CO2="2767.73" CO="163.15" HC="0.81" NOx="1.26" PMx="0.07" fuel="1.19" electricity="0.00" noise="67.48" route="route-100822066_0" type="human" waiting="0.00" lane="-100822066_0" pos="54.63" speed="0.26" angle="177.41" x="291.11" y="256.22"/>
        <vehicle id="human_3" eclass="HBEFA3/PC_G_EU4" CO2="2767.73" CO="163.15" HC="0.81" NOx="1.26" PMx="0.07" fuel="1.19" electricity="0.00" noise="67.48" route="route-100822066_0" type="human" waiting="0.00" lane="-100822066_1" pos="54.63" speed="0.26" angle="177.40" x="294.30" y="256.36"/>
        <vehicle id="human_4" eclass="HBEFA3/PC_G_EU4" CO2="2766.73" CO="163.15" HC="0.81" NOx="1.26" PMx="0.07" fuel="1.19" electricity="0.00" noise="67.44" route="route155558218_0" type="human" waiting="0.00" lane="155558218_0" pos="8.97" speed="0.26" angle="78.17" x="138.40" y="31.58"/>
        <vehicle id="human_5" eclass="HBEFA3/PC_G_EU4" CO2="2766.73" CO="163.15" HC="0.81" NOx="1.26" PMx="0.07" fuel="1.19" electricity="0.00" noise="67.44" route="route155558218_0" type="human" waiting="0.00" lane="155558218_0" pos="58.57" speed="0.26" angle="78.17" x="186.94" y="41.75"/>
        <vehicle id="human_6" eclass="HBEFA3/PC_G_EU4" CO2="2766.73" CO="163.15" HC="0.81" NOx="1.26" PMx="0.07" fuel="1.19" electricity="0.00" noise="67.44" route="route155558218_0" type="human" waiting="0.00" lane="155558218_0" pos="108.17" speed="0.26" angle="78.17" x="235.49" y="51.91"/>
        <vehicle id="human_7" eclass="HBEFA3/PC_G_EU4" CO2="2767.73" CO="163.15" HC="0.81" NOx="1.26" PMx="0.07" fuel="1.19" electricity="0.00" noise="67.48" route="route155558218_0" type="human" waiting="0.00" lane="155558218_0" pos="157.77" speed="0.26" angle="78.17" x="284.03" y="62.08"/>
        <vehicle id="rl_0" eclass="HBEFA3/PC_G_EU4" CO2="2766.75" CO="163.15" HC="0.81" NOx="1.26" PMx="0.07" fuel="1.19" electricity="0.00" noise="67.44" route="route4794817_0" type="rl" waiting="0.00" lane="4794817_0" pos="5.03" speed="0.26" angle="114.03" x="4.59" y="205.25"/>
        <vehicle id="rl_1" eclass="HBEFA3/PC_G_EU4" CO2="2766.68" CO="163.15" HC="0.81" NOx="1.26" PMx="0.07" fuel="1.19" electricity="0.00" noise="67.44" route="route4794817_0" type="rl" waiting="0.00" lane="4794817_0" pos="55.14" speed="0.26" angle="114.03" x="50.36" y="184.84"/>
        <vehicle id="rl_2" eclass="HBEFA3/PC_G_EU4" CO2="2766.68" CO="163.15" HC="0.81" NOx="1.26" PMx="0.07" fuel="1.19" electricity="0.00" noise="67.44" route="route4794817_0" type="rl" waiting="0.00" lane="4794817_0" pos="103.74" speed="0.26" angle="114.03" x="94.74" y="165.05"/>
        <vehicle id="rl_3" eclass="HBEFA3/PC_G_EU4" CO2="2766.68" CO="163.15" HC="0.81" NOx="1.26" PMx="0.07" fuel="1.19" electricity="0.00" noise="67.44" route="route4794817_0" type="rl" waiting="0.00" lane="4794817_0" pos="152.34" speed="0.26" angle="114.03" x="139.13" y="145.25"/>
        <vehicle id="rl_4" eclass="HBEFA3/PC_G_EU4" CO2="2767.73" CO="163.15" HC="0.81" NOx="1.26" PMx="0.07" fuel="1.19" electricity="0.00" noise="67.48" route="route4794817_0" type="rl" waiting="0.00" lane="4794817_0" pos="200.94" speed="0.26" angle="113.29" x="183.72" y="125.91"/>
    </timestep>
</emission-export>
