<?xml version="1.0" encoding="UTF-8"?>

<!-- generated on Tue Apr 14 15:18:21 2020 by Eclipse SUMO Version v1_1_0+0000-2147d155b1
<configuration xmlns:xsi="http://www.w3.org/2001/XMLSchema-instance" xsi:noNamespaceSchemaLocation="http://sumo.dlr.de/xsd/sumoConfiguration.xsd">

    <input>
        <net-file value="/home/julien/Documents/flow/flow/core/kernel/network/debug/cfg/ISSY_RL_train_20200414-1509311586869771.4941633.net.xml"/>
        <route-files value="/home/julien/Documents/flow/flow/core/kernel/network/debug/cfg/ISSY_RL_train_20200414-1509311586869771.4941633.rou.xml"/>
        <additional-files value="/home/julien/Documents/flow/flow/core/kernel/network/debug/cfg/ISSY_RL_train_20200414-1509311586869771.4941633.add.xml"/>
    </input>

    <output>
        <emission-output value="data/ISSY_RL_train_20200414-1509311586869771.4941633-emission.xml"/>
    </output>

    <time>
        <begin value="0"/>
        <step-length value="0.1"/>
    </time>

    <processing>
        <collision.check-junctions value="true"/>
        <time-to-teleport value="-1"/>
    </processing>

    <report>
        <no-step-log value="true"/>
    </report>

    <traci_server>
        <remote-port value="41925"/>
        <num-clients value="1"/>
    </traci_server>

    <random_number>
        <seed value="94518"/>
    </random_number>

    <gui_only>
        <gui-settings-file value="/home/julien/Documents/flow/flow/core/kernel/network/debug/cfg/ISSY_RL_train_20200414-1509311586869771.4941633.gui.cfg"/>
        <tracker-interval value="0.1"/>
    </gui_only>

</configuration>
-->

<emission-export xmlns:xsi="http://www.w3.org/2001/XMLSchema-instance" xsi:noNamespaceSchemaLocation="http://sumo.dlr.de/xsd/emission_file.xsd">
    <timestep time="0.00"/>
    <timestep time="0.10">
        <vehicle id="human_0" eclass="HBEFA3/PC_G_EU4" CO2="2624.72" CO="164.78" HC="0.81" NOx="1.20" PMx="0.07" fuel="1.13" electricity="0.00" noise="55.94" route="route-100822066_0" type="human" waiting="0.00" lane="-100822066_0" pos="5.00" speed="0.00" angle="177.41" x="288.87" y="305.79"/>
        <vehicle id="human_1" eclass="HBEFA3/PC_G_EU4" CO2="2624.72" CO="164.78" HC="0.81" NOx="1.20" PMx="0.07" fuel="1.13" electricity="0.00" noise="55.94" route="route-100822066_0" type="human" waiting="0.00" lane="-100822066_1" pos="5.00" speed="0.00" angle="177.40" x="292.06" y="305.93"/>
        <vehicle id="human_2" eclass="HBEFA3/PC_G_EU4" CO2="2624.72" CO="164.78" HC="0.81" NOx="1.20" PMx="0.07" fuel="1.13" electricity="0.00" noise="55.94" route="route-100822066_0" type="human" waiting="0.00" lane="-100822066_0" pos="54.60" speed="0.00" angle="177.41" x="291.10" y="256.24"/>
        <vehicle id="human_3" eclass="HBEFA3/PC_G_EU4" CO2="2624.72" CO="164.78" HC="0.81" NOx="1.20" PMx="0.07" fuel="1.13" electricity="0.00" noise="55.94" route="route-100822066_0" type="human" waiting="0.00" lane="-100822066_1" pos="54.60" speed="0.00" angle="177.40" x="294.30" y="256.38"/>
        <vehicle id="human_4" eclass="HBEFA3/PC_G_EU4" CO2="2624.72" CO="164.78" HC="0.81" NOx="1.20" PMx="0.07" fuel="1.13" electricity="0.00" noise="55.94" route="route155558218_0" type="human" waiting="0.00" lane="155558218_0" pos="8.94" speed="0.00" angle="78.17" x="138.37" y="31.57"/>
        <vehicle id="human_5" eclass="HBEFA3/PC_G_EU4" CO2="2624.72" CO="164.78" HC="0.81" NOx="1.20" PMx="0.07" fuel="1.13" electricity="0.00" noise="55.94" route="route155558218_0" type="human" waiting="0.00" lane="155558218_0" pos="58.54" speed="0.00" angle="78.17" x="186.92" y="41.74"/>
        <vehicle id="human_6" eclass="HBEFA3/PC_G_EU4" CO2="2624.72" CO="164.78" HC="0.81" NOx="1.20" PMx="0.07" fuel="1.13" electricity="0.00" noise="55.94" route="route155558218_0" type="human" waiting="0.00" lane="155558218_0" pos="108.15" speed="0.00" angle="78.17" x="235.46" y="51.91"/>
        <vehicle id="human_7" eclass="HBEFA3/PC_G_EU4" CO2="2624.72" CO="164.78" HC="0.81" NOx="1.20" PMx="0.07" fuel="1.13" electricity="0.00" noise="55.94" route="route155558218_0" type="human" waiting="0.00" lane="155558218_0" pos="157.75" speed="0.00" angle="78.17" x="284.01" y="62.08"/>
        <vehicle id="rl_0" eclass="HBEFA3/PC_G_EU4" CO2="2624.72" CO="164.78" HC="0.81" NOx="1.20" PMx="0.07" fuel="1.13" electricity="0.00" noise="55.94" route="route4794817_0" type="rl" waiting="0.00" lane="4794817_0" pos="5.00" speed="0.00" angle="114.03" x="4.57" y="205.26"/>
        <vehicle id="rl_1" eclass="HBEFA3/PC_G_EU4" CO2="2624.72" CO="164.78" HC="0.81" NOx="1.20" PMx="0.07" fuel="1.13" electricity="0.00" noise="55.94" route="route4794817_0" type="rl" waiting="0.00" lane="4794817_0" pos="55.11" speed="0.00" angle="114.03" x="50.33" y="184.85"/>
        <vehicle id="rl_2" eclass="HBEFA3/PC_G_EU4" CO2="2624.72" CO="164.78" HC="0.81" NOx="1.20" PMx="0.07" fuel="1.13" electricity="0.00" noise="55.94" route="route4794817_0" type="rl" waiting="0.00" lane="4794817_0" pos="103.71" speed="0.00" angle="114.03" x="94.72" y="165.06"/>
        <vehicle id="rl_3" eclass="HBEFA3/PC_G_EU4" CO2="2624.72" CO="164.78" HC="0.81" NOx="1.20" PMx="0.07" fuel="1.13" electricity="0.00" noise="55.94" route="route4794817_0" type="rl" waiting="0.00" lane="4794817_0" pos="152.31" speed="0.00" angle="114.03" x="139.11" y="145.26"/>
        <vehicle id="rl_4" eclass="HBEFA3/PC_G_EU4" CO2="2624.72" CO="164.78" HC="0.81" NOx="1.20" PMx="0.07" fuel="1.13" electricity="0.00" noise="55.94" route="route4794817_0" type="rl" waiting="0.00" lane="4794817_0" pos="200.92" speed="0.00" angle="113.29" x="183.69" y="125.92"/>
    </timestep>
    <timestep time="0.20">
        <vehicle id="human_0" eclass="HBEFA3/PC_G_EU4" CO2="2637.43" CO="163.30" HC="0.81" NOx="1.21" PMx="0.07" fuel="1.13" electricity="0.00" noise="60.32" route="route-100822066_0" type="human" waiting="0.10" lane="-100822066_0" pos="5.01" speed="0.10" angle="177.41" x="288.87" y="305.79"/>
        <vehicle id="human_1" eclass="HBEFA3/PC_G_EU4" CO2="2637.43" CO="163.30" HC="0.81" NOx="1.21" PMx="0.07" fuel="1.13" electricity="0.00" noise="60.32" route="route-100822066_0" type="human" waiting="0.10" lane="-100822066_1" pos="5.01" speed="0.10" angle="177.40" x="292.06" y="305.93"/>
        <vehicle id="human_2" eclass="HBEFA3/PC_G_EU4" CO2="2637.51" CO="163.29" HC="0.81" NOx="1.21" PMx="0.07" fuel="1.13" electricity="0.00" noise="60.33" route="route-100822066_0" type="human" waiting="0.10" lane="-100822066_0" pos="54.61" speed="0.10" angle="177.41" x="291.10" y="256.23"/>
        <vehicle id="human_3" eclass="HBEFA3/PC_G_EU4" CO2="2637.51" CO="163.29" HC="0.81" NOx="1.21" PMx="0.07" fuel="1.13" electricity="0.00" noise="60.33" route="route-100822066_0" type="human" waiting="0.10" lane="-100822066_1" pos="54.61" speed="0.10" angle="177.40" x="294.30" y="256.37"/>
        <vehicle id="human_4" eclass="HBEFA3/PC_G_EU4" CO2="2637.43" CO="163.30" HC="0.81" NOx="1.21" PMx="0.07" fuel="1.13" electricity="0.00" noise="60.32" route="route155558218_0" type="human" waiting="0.10" lane="155558218_0" pos="8.95" speed="0.10" angle="78.17" x="138.38" y="31.58"/>
        <vehicle id="human_5" eclass="HBEFA3/PC_G_EU4" CO2="2637.43" CO="163.30" HC="0.81" NOx="1.21" PMx="0.07" fuel="1.13" electricity="0.00" noise="60.32" route="route155558218_0" type="human" waiting="0.10" lane="155558218_0" pos="58.55" speed="0.10" angle="78.17" x="186.93" y="41.74"/>
        <vehicle id="human_6" eclass="HBEFA3/PC_G_EU4" CO2="2637.43" CO="163.30" HC="0.81" NOx="1.21" PMx="0.07" fuel="1.13" electricity="0.00" noise="60.32" route="route155558218_0" type="human" waiting="0.10" lane="155558218_0" pos="108.16" speed="0.10" angle="78.17" x="235.47" y="51.91"/>
        <vehicle id="human_7" eclass="HBEFA3/PC_G_EU4" CO2="2637.51" CO="163.29" HC="0.81" NOx="1.21" PMx="0.07" fuel="1.13" electricity="0.00" noise="60.33" route="route155558218_0" type="human" waiting="0.10" lane="155558218_0" pos="157.76" speed="0.10" angle="78.17" x="284.02" y="62.08"/>
        <vehicle id="rl_0" eclass="HBEFA3/PC_G_EU4" CO2="2624.72" CO="164.78" HC="0.81" NOx="1.20" PMx="0.07" fuel="1.13" electricity="0.00" noise="55.94" route="route4794817_0" type="rl" waiting="0.10" lane="4794817_0" pos="5.00" speed="0.00" angle="114.03" x="4.57" y="205.26"/>
        <vehicle id="rl_1" eclass="HBEFA3/PC_G_EU4" CO2="2623.44" CO="164.51" HC="0.81" NOx="1.20" PMx="0.07" fuel="1.13" electricity="0.00" noise="56.55" route="route4794817_0" type="rl" waiting="0.10" lane="4794817_0" pos="55.11" speed="0.01" angle="114.03" x="50.33" y="184.85"/>
        <vehicle id="rl_2" eclass="HBEFA3/PC_G_EU4" CO2="2623.11" CO="164.29" HC="0.81" NOx="1.20" PMx="0.07" fuel="1.13" electricity="0.00" noise="57.08" route="route4794817_0" type="rl" waiting="0.10" lane="4794817_0" pos="103.71" speed="0.03" angle="114.03" x="94.72" y="165.06"/>
        <vehicle id="rl_3" eclass="HBEFA3/PC_G_EU4" CO2="2624.72" CO="164.78" HC="0.81" NOx="1.20" PMx="0.07" fuel="1.13" electricity="0.00" noise="55.94" route="route4794817_0" type="rl" waiting="0.10" lane="4794817_0" pos="152.31" speed="0.00" angle="114.03" x="139.11" y="145.26"/>
        <vehicle id="rl_4" eclass="HBEFA3/PC_G_EU4" CO2="2627.08" CO="163.70" HC="0.81" NOx="1.20" PMx="0.07" fuel="1.13" electricity="0.00" noise="58.77" route="route4794817_0" type="rl" waiting="0.10" lane="4794817_0" pos="200.92" speed="0.06" angle="113.29" x="183.70" y="125.92"/>
    </timestep>
    <timestep time="0.30">
        <vehicle id="human_0" eclass="HBEFA3/PC_G_EU4" CO2="2650.28" CO="161.83" HC="0.80" NOx="1.21" PMx="0.07" fuel="1.14" electricity="0.00" noise="60.36" route="route-100822066_0" type="human" waiting="0.00" lane="-100822066_0" pos="5.03" speed="0.20" angle="177.41" x="288.87" y="305.77"/>
        <vehicle id="human_1" eclass="HBEFA3/PC_G_EU4" CO2="2650.28" CO="161.83" HC="0.80" NOx="1.21" PMx="0.07" fuel="1.14" electricity="0.00" noise="60.36" route="route-100822066_0" type="human" waiting="0.00" lane="-100822066_1" pos="5.03" speed="0.20" angle="177.40" x="292.06" y="305.91"/>
        <vehicle id="human_2" eclass="HBEFA3/PC_G_EU4" CO2="2650.44" CO="161.82" HC="0.80" NOx="1.21" PMx="0.07" fuel="1.14" electricity="0.00" noise="60.37" route="route-100822066_0" type="human" waiting="0.00" lane="-100822066_0" pos="54.63" speed="0.20" angle="177.41" x="291.11" y="256.21"/>
        <vehicle id="human_3" eclass="HBEFA3/PC_G_EU4" CO2="2650.44" CO="161.82" HC="0.80" NOx="1.21" PMx="0.07" fuel="1.14" electricity="0.00" noise="60.37" route="route-100822066_0" type="human" waiting="0.00" lane="-100822066_1" pos="54.63" speed="0.20" angle="177.40" x="294.30" y="256.35"/>
        <vehicle id="human_4" eclass="HBEFA3/PC_G_EU4" CO2="2650.28" CO="161.83" HC="0.80" NOx="1.21" PMx="0.07" fuel="1.14" electricity="0.00" noise="60.36" route="route155558218_0" type="human" waiting="0.00" lane="155558218_0" pos="8.97" speed="0.20" angle="78.17" x="138.40" y="31.58"/>
        <vehicle id="human_5" eclass="HBEFA3/PC_G_EU4" CO2="2650.28" CO="161.83" HC="0.80" NOx="1.21" PMx="0.07" fuel="1.14" electricity="0.00" noise="60.36" route="route155558218_0" type="human" waiting="0.00" lane="155558218_0" pos="58.57" speed="0.20" angle="78.17" x="186.95" y="41.75"/>
        <vehicle id="human_6" eclass="HBEFA3/PC_G_EU4" CO2="2650.28" CO="161.83" HC="0.80" NOx="1.21" PMx="0.07" fuel="1.14" electricity="0.00" noise="60.36" route="route155558218_0" type="human" waiting="0.00" lane="155558218_0" pos="108.18" speed="0.20" angle="78.17" x="235.49" y="51.91"/>
        <vehicle id="human_7" eclass="HBEFA3/PC_G_EU4" CO2="2650.44" CO="161.82" HC="0.80" NOx="1.21" PMx="0.07" fuel="1.14" electricity="0.00" noise="60.37" route="route155558218_0" type="human" waiting="0.00" lane="155558218_0" pos="157.78" speed="0.20" angle="78.17" x="284.04" y="62.08"/>
        <vehicle id="rl_0" eclass="HBEFA3/PC_G_EU4" CO2="2624.72" CO="164.78" HC="0.81" NOx="1.20" PMx="0.07" fuel="1.13" electricity="0.00" noise="55.94" route="route4794817_0" type="rl" waiting="0.20" lane="4794817_0" pos="5.00" speed="0.00" angle="114.03" x="4.57" y="205.26"/>
        <vehicle id="rl_1" eclass="HBEFA3/PC_G_EU4" CO2="2622.77" CO="164.46" HC="0.81" NOx="1.20" PMx="0.07" fuel="1.13" electricity="0.00" noise="56.04" route="route4794817_0" type="rl" waiting="0.20" lane="4794817_0" pos="55.11" speed="0.02" angle="114.03" x="50.34" y="184.85"/>
        <vehicle id="rl_2" eclass="HBEFA3/PC_G_EU4" CO2="0.00" CO="0.00" HC="0.00" NOx="0.00" PMx="0.00" fuel="0.00" electricity="0.00" noise="54.82" route="route4794817_0" type="rl" waiting="0.20" lane="4794817_0" pos="103.71" speed="0.00" angle="114.03" x="94.72" y="165.06"/>
        <vehicle id="rl_3" eclass="HBEFA3/PC_G_EU4" CO2="2624.72" CO="164.78" HC="0.81" NOx="1.20" PMx="0.07" fuel="1.13" electricity="0.00" noise="55.94" route="route4794817_0" type="rl" waiting="0.20" lane="4794817_0" pos="152.31" speed="0.00" angle="114.03" x="139.11" y="145.26"/>
        <vehicle id="rl_4" eclass="HBEFA3/PC_G_EU4" CO2="2637.75" CO="162.46" HC="0.80" NOx="1.21" PMx="0.07" fuel="1.13" electricity="0.00" noise="59.66" route="route4794817_0" type="rl" waiting="0.00" lane="4794817_0" pos="200.94" speed="0.15" angle="113.29" x="183.71" y="125.91"/>
    </timestep>
    <timestep time="0.40">
        <vehicle id="human_0" eclass="HBEFA3/PC_G_EU4" CO2="2663.26" CO="160.37" HC="0.79" NOx="1.21" PMx="0.07" fuel="1.14" electricity="0.00" noise="60.40" route="route-100822066_0" type="human" waiting="0.00" lane="-100822066_0" pos="5.06" speed="0.30" angle="177.41" x="288.87" y="305.74"/>
        <vehicle id="human_1" eclass="HBEFA3/PC_G_EU4" CO2="2663.26" CO="160.37" HC="0.79" NOx="1.21" PMx="0.07" fuel="1.14" electricity="0.00" noise="60.40" route="route-100822066_0" type="human" waiting="0.00" lane="-100822066_1" pos="5.06" speed="0.30" angle="177.40" x="292.06" y="305.88"/>
        <vehicle id="human_2" eclass="HBEFA3/PC_G_EU4" CO2="2663.53" CO="160.36" HC="0.79" NOx="1.21" PMx="0.07" fuel="1.15" electricity="0.00" noise="60.41" route="route-100822066_0" type="human" waiting="0.00" lane="-100822066_0" pos="54.66" speed="0.30" angle="177.41" x="291.11" y="256.18"/>
        <vehicle id="human_3" eclass="HBEFA3/PC_G_EU4" CO2="2663.53" CO="160.36" HC="0.79" NOx="1.21" PMx="0.07" fuel="1.15" electricity="0.00" noise="60.41" route="route-100822066_0" type="human" waiting="0.00" lane="-100822066_1" pos="54.66" speed="0.30" angle="177.40" x="294.31" y="256.32"/>
        <vehicle id="human_4" eclass="HBEFA3/PC_G_EU4" CO2="2663.26" CO="160.37" HC="0.79" NOx="1.21" PMx="0.07" fuel="1.14" electricity="0.00" noise="60.40" route="route155558218_0" type="human" waiting="0.00" lane="155558218_0" pos="9.00" speed="0.30" angle="78.17" x="138.43" y="31.59"/>
        <vehicle id="human_5" eclass="HBEFA3/PC_G_EU4" CO2="2663.26" CO="160.37" HC="0.79" NOx="1.21" PMx="0.07" fuel="1.14" electricity="0.00" noise="60.40" route="route155558218_0" type="human" waiting="0.00" lane="155558218_0" pos="58.60" speed="0.30" angle="78.17" x="186.98" y="41.75"/>
        <vehicle id="human_6" eclass="HBEFA3/PC_G_EU4" CO2="2663.26" CO="160.37" HC="0.79" NOx="1.21" PMx="0.07" fuel="1.14" electricity="0.00" noise="60.40" route="route155558218_0" type="human" waiting="0.00" lane="155558218_0" pos="108.21" speed="0.30" angle="78.17" x="235.52" y="51.92"/>
        <vehicle id="human_7" eclass="HBEFA3/PC_G_EU4" CO2="2663.53" CO="160.36" HC="0.79" NOx="1.21" PMx="0.07" fuel="1.15" electricity="0.00" noise="60.41" route="route155558218_0" type="human" waiting="0.00" lane="155558218_0" pos="157.81" speed="0.30" angle="78.17" x="284.07" y="62.09"/>
        <vehicle id="rl_0" eclass="HBEFA3/PC_G_EU4" CO2="2624.72" CO="164.78" HC="0.81" NOx="1.20" PMx="0.07" fuel="1.13" electricity="0.00" noise="55.94" route="route4794817_0" type="rl" waiting="0.30" lane="4794817_0" pos="5.00" speed="0.00" angle="114.03" x="4.57" y="205.26"/>
        <vehicle id="rl_1" eclass="HBEFA3/PC_G_EU4" CO2="0.00" CO="0.00" HC="0.00" NOx="0.00" PMx="0.00" fuel="0.00" electricity="0.00" noise="55.26" route="route4794817_0" type="rl" waiting="0.30" lane="4794817_0" pos="55.11" speed="0.00" angle="114.03" x="50.34" y="184.85"/>
        <vehicle id="rl_2" eclass="HBEFA3/PC_G_EU4" CO2="0.00" CO="0.00" HC="0.00" NOx="0.00" PMx="0.00" fuel="0.00" electricity="0.00" noise="55.93" route="route4794817_0" type="rl" waiting="0.30" lane="4794817_0" pos="103.71" speed="0.00" angle="114.03" x="94.72" y="165.06"/>
        <vehicle id="rl_3" eclass="HBEFA3/PC_G_EU4" CO2="2624.72" CO="164.78" HC="0.81" NOx="1.20" PMx="0.07" fuel="1.13" electricity="0.00" noise="55.94" route="route4794817_0" type="rl" waiting="0.30" lane="4794817_0" pos="152.31" speed="0.00" angle="114.03" x="139.11" y="145.26"/>
        <vehicle id="rl_4" eclass="HBEFA3/PC_G_EU4" CO2="0.00" CO="0.00" HC="0.00" NOx="0.00" PMx="0.00" fuel="0.00" electricity="0.00" noise="52.34" route="route4794817_0" type="rl" waiting="0.10" lane="4794817_0" pos="200.94" speed="0.06" angle="113.29" x="183.72" y="125.91"/>
    </timestep>
    <timestep time="0.50">
        <vehicle id="human_0" eclass="HBEFA3/PC_G_EU4" CO2="2676.39" CO="158.92" HC="0.79" NOx="1.22" PMx="0.07" fuel="1.15" electricity="0.00" noise="60.43" route="route-100822066_0" type="human" waiting="0.00" lane="-100822066_0" pos="5.10" speed="0.40" angle="177.41" x="288.87" y="305.70"/>
        <vehicle id="human_1" eclass="HBEFA3/PC_G_EU4" CO2="2676.39" CO="158.92" HC="0.79" NOx="1.22" PMx="0.07" fuel="1.15" electricity="0.00" noise="60.43" route="route-100822066_0" type="human" waiting="0.00" lane="-100822066_1" pos="5.10" speed="0.40" angle="177.40" x="292.06" y="305.84"/>
        <vehicle id="human_2" eclass="HBEFA3/PC_G_EU4" CO2="2676.78" CO="158.91" HC="0.79" NOx="1.22" PMx="0.07" fuel="1.15" electricity="0.00" noise="60.44" route="route-100822066_0" type="human" waiting="0.00" lane="-100822066_0" pos="54.70" speed="0.40" angle="177.41" x="291.11" y="256.14"/>
        <vehicle id="human_3" eclass="HBEFA3/PC_G_EU4" CO2="2676.78" CO="158.91" HC="0.79" NOx="1.22" PMx="0.07" fuel="1.15" electricity="0.00" noise="60.44" route="route-100822066_0" type="human" waiting="0.00" lane="-100822066_1" pos="54.70" speed="0.40" angle="177.40" x="294.31" y="256.28"/>
        <vehicle id="human_4" eclass="HBEFA3/PC_G_EU4" CO2="2676.39" CO="158.92" HC="0.79" NOx="1.22" PMx="0.07" fuel="1.15" electricity="0.00" noise="60.43" route="route155558218_0" type="human" waiting="0.00" lane="155558218_0" pos="9.04" speed="0.40" angle="78.17" x="138.47" y="31.59"/>
        <vehicle id="human_5" eclass="HBEFA3/PC_G_EU4" CO2="2676.39" CO="158.92" HC="0.79" NOx="1.22" PMx="0.07" fuel="1.15" electricity="0.00" noise="60.43" route="route155558218_0" type="human" waiting="0.00" lane="155558218_0" pos="58.64" speed="0.40" angle="78.17" x="187.01" y="41.76"/>
        <vehicle id="human_6" eclass="HBEFA3/PC_G_EU4" CO2="2676.39" CO="158.92" HC="0.79" NOx="1.22" PMx="0.07" fuel="1.15" electricity="0.00" noise="60.43" route="route155558218_0" type="human" waiting="0.00" lane="155558218_0" pos="108.24" speed="0.40" angle="78.17" x="235.56" y="51.93"/>
        <vehicle id="human_7" eclass="HBEFA3/PC_G_EU4" CO2="2676.78" CO="158.91" HC="0.79" NOx="1.22" PMx="0.07" fuel="1.15" electricity="0.00" noise="60.44" route="route155558218_0" type="human" waiting="0.00" lane="155558218_0" pos="157.85" speed="0.40" angle="78.17" x="284.11" y="62.10"/>
        <vehicle id="rl_0" eclass="HBEFA3/PC_G_EU4" CO2="2623.14" CO="164.25" HC="0.81" NOx="1.20" PMx="0.07" fuel="1.13" electricity="0.00" noise="57.19" route="route4794817_0" type="rl" waiting="0.40" lane="4794817_0" pos="5.00" speed="0.03" angle="114.03" x="4.57" y="205.26"/>
        <vehicle id="rl_1" eclass="HBEFA3/PC_G_EU4" CO2="2631.16" CO="163.49" HC="0.81" NOx="1.21" PMx="0.07" fuel="1.13" electricity="0.00" noise="59.50" route="route4794817_0" type="rl" waiting="0.40" lane="4794817_0" pos="55.12" speed="0.08" angle="114.03" x="50.34" y="184.85"/>
        <vehicle id="rl_2" eclass="HBEFA3/PC_G_EU4" CO2="2624.75" CO="163.90" HC="0.81" NOx="1.20" PMx="0.07" fuel="1.13" electricity="0.00" noise="58.15" route="route4794817_0" type="rl" waiting="0.40" lane="4794817_0" pos="103.72" speed="0.05" angle="114.03" x="94.73" y="165.06"/>
        <vehicle id="rl_3" eclass="HBEFA3/PC_G_EU4" CO2="2650.76" CO="163.06" HC="0.80" NOx="1.21" PMx="0.07" fuel="1.14" electricity="0.00" noise="61.60" route="route4794817_0" type="rl" waiting="0.00" lane="4794817_0" pos="152.33" speed="0.13" angle="114.03" x="139.12" y="145.26"/>
        <vehicle id="rl_4" eclass="HBEFA3/PC_G_EU4" CO2="2620.12" CO="163.00" HC="0.80" NOx="1.20" PMx="0.07" fuel="1.13" electricity="0.00" noise="57.34" route="route4794817_0" type="rl" waiting="0.20" lane="4794817_0" pos="200.95" speed="0.10" angle="113.29" x="183.73" y="125.91"/>
    </timestep>
    <timestep time="0.60">
        <vehicle id="human_0" eclass="HBEFA3/PC_G_EU4" CO2="2689.65" CO="157.49" HC="0.78" NOx="1.22" PMx="0.06" fuel="1.16" electricity="0.00" noise="60.47" route="route-100822066_0" type="human" waiting="0.00" lane="-100822066_0" pos="5.15" speed="0.49" angle="177.41" x="288.87" y="305.65"/>
        <vehicle id="human_1" eclass="HBEFA3/PC_G_EU4" CO2="2689.65" CO="157.49" HC="0.78" NOx="1.22" PMx="0.06" fuel="1.16" electricity="0.00" noise="60.47" route="route-100822066_0" type="human" waiting="0.00" lane="-100822066_1" pos="5.15" speed="0.49" angle="177.40" x="292.06" y="305.79"/>
        <vehicle id="human_2" eclass="HBEFA3/PC_G_EU4" CO2="2690.18" CO="157.48" HC="0.78" NOx="1.22" PMx="0.06" fuel="1.16" electricity="0.00" noise="60.48" route="route-100822066_0" type="human" waiting="0.00" lane="-100822066_0" pos="54.75" speed="0.50" angle="177.41" x="291.11" y="256.09"/>
        <vehicle id="human_3" eclass="HBEFA3/PC_G_EU4" CO2="2690.18" CO="157.48" HC="0.78" NOx="1.22" PMx="0.06" fuel="1.16" electricity="0.00" noise="60.48" route="route-100822066_0" type="human" waiting="0.00" lane="-100822066_1" pos="54.75" speed="0.50" angle="177.40" x="294.31" y="256.23"/>
        <vehicle id="human_4" eclass="HBEFA3/PC_G_EU4" CO2="2689.65" CO="157.49" HC="0.78" NOx="1.22" PMx="0.06" fuel="1.16" electricity="0.00" noise="60.47" route="route155558218_0" type="human" waiting="0.00" lane="155558218_0" pos="9.09" speed="0.49" angle="78.17" x="138.52" y="31.60"/>
        <vehicle id="human_5" eclass="HBEFA3/PC_G_EU4" CO2="2689.65" CO="157.49" HC="0.78" NOx="1.22" PMx="0.06" fuel="1.16" electricity="0.00" noise="60.47" route="route155558218_0" type="human" waiting="0.00" lane="155558218_0" pos="58.69" speed="0.49" angle="78.17" x="187.06" y="41.77"/>
        <vehicle id="human_6" eclass="HBEFA3/PC_G_EU4" CO2="2689.65" CO="157.49" HC="0.78" NOx="1.22" PMx="0.06" fuel="1.16" electricity="0.00" noise="60.47" route="route155558218_0" type="human" waiting="0.00" lane="155558218_0" pos="108.29" speed="0.49" angle="78.17" x="235.61" y="51.94"/>
        <vehicle id="human_7" eclass="HBEFA3/PC_G_EU4" CO2="2690.18" CO="157.48" HC="0.78" NOx="1.22" PMx="0.06" fuel="1.16" electricity="0.00" noise="60.48" route="route155558218_0" type="human" waiting="0.00" lane="155558218_0" pos="157.90" speed="0.50" angle="78.17" x="284.15" y="62.11"/>
        <vehicle id="rl_0" eclass="HBEFA3/PC_G_EU4" CO2="0.00" CO="0.00" HC="0.00" NOx="0.00" PMx="0.00" fuel="0.00" electricity="0.00" noise="54.71" route="route4794817_0" type="rl" waiting="0.50" lane="4794817_0" pos="5.00" speed="0.00" angle="114.03" x="4.57" y="205.26"/>
        <vehicle id="rl_1" eclass="HBEFA3/PC_G_EU4" CO2="2614.70" CO="163.08" HC="0.80" NOx="1.20" PMx="0.07" fuel="1.12" electricity="0.00" noise="56.15" route="route4794817_0" type="rl" waiting="0.50" lane="4794817_0" pos="55.13" speed="0.08" angle="114.03" x="50.35" y="184.85"/>
        <vehicle id="rl_2" eclass="HBEFA3/PC_G_EU4" CO2="0.00" CO="0.00" HC="0.00" NOx="0.00" PMx="0.00" fuel="0.00" electricity="0.00" noise="54.22" route="route4794817_0" type="rl" waiting="0.50" lane="4794817_0" pos="103.72" speed="0.01" angle="114.03" x="94.73" y="165.06"/>
        <vehicle id="rl_3" eclass="HBEFA3/PC_G_EU4" CO2="2628.33" CO="161.61" HC="0.80" NOx="1.20" PMx="0.07" fuel="1.13" electricity="0.00" noise="58.50" route="route4794817_0" type="rl" waiting="0.00" lane="4794817_0" pos="152.35" speed="0.18" angle="114.03" x="139.14" y="145.25"/>
        <vehicle id="rl_4" eclass="HBEFA3/PC_G_EU4" CO2="2631.48" CO="162.08" HC="0.80" NOx="1.20" PMx="0.07" fuel="1.13" electricity="0.00" noise="58.88" route="route4794817_0" type="rl" waiting="0.00" lane="4794817_0" pos="200.97" speed="0.16" angle="113.29" x="183.74" y="125.90"/>
    </timestep>
    <timestep time="0.70">
        <vehicle id="human_0" eclass="HBEFA3/PC_G_EU4" CO2="2703.04" CO="156.06" HC="0.77" NOx="1.22" PMx="0.06" fuel="1.16" electricity="0.00" noise="60.51" route="route-100822066_0" type="human" waiting="0.00" lane="-100822066_0" pos="5.21" speed="0.59" angle="177.41" x="288.87" y="305.59"/>
        <vehicle id="human_1" eclass="HBEFA3/PC_G_EU4" CO2="2703.04" CO="156.06" HC="0.77" NOx="1.22" PMx="0.06" fuel="1.16" electricity="0.00" noise="60.51" route="route-100822066_0" type="human" waiting="0.00" lane="-100822066_1" pos="5.21" speed="0.59" angle="177.40" x="292.07" y="305.73"/>
        <vehicle id="human_2" eclass="HBEFA3/PC_G_EU4" CO2="2703.73" CO="156.05" HC="0.77" NOx="1.23" PMx="0.06" fuel="1.16" electricity="0.00" noise="60.52" route="route-100822066_0" type="human" waiting="0.00" lane="-100822066_0" pos="54.81" speed="0.59" angle="177.41" x="291.11" y="256.03"/>
        <vehicle id="human_3" eclass="HBEFA3/PC_G_EU4" CO2="2703.73" CO="156.05" HC="0.77" NOx="1.23" PMx="0.06" fuel="1.16" electricity="0.00" noise="60.52" route="route-100822066_0" type="human" waiting="0.00" lane="-100822066_1" pos="54.81" speed="0.59" angle="177.40" x="294.31" y="256.17"/>
        <vehicle id="human_4" eclass="HBEFA3/PC_G_EU4" CO2="2703.04" CO="156.06" HC="0.77" NOx="1.22" PMx="0.06" fuel="1.16" electricity="0.00" noise="60.51" route="route155558218_0" type="human" waiting="0.00" lane="155558218_0" pos="9.15" speed="0.59" angle="78.17" x="138.58" y="31.62"/>
        <vehicle id="human_5" eclass="HBEFA3/PC_G_EU4" CO2="2703.04" CO="156.06" HC="0.77" NOx="1.22" PMx="0.06" fuel="1.16" electricity="0.00" noise="60.51" route="route155558218_0" type="human" waiting="0.00" lane="155558218_0" pos="58.75" speed="0.59" angle="78.17" x="187.12" y="41.78"/>
        <vehicle id="human_6" eclass="HBEFA3/PC_G_EU4" CO2="2703.04" CO="156.06" HC="0.77" NOx="1.22" PMx="0.06" fuel="1.16" electricity="0.00" noise="60.51" route="route155558218_0" type="human" waiting="0.00" lane="155558218_0" pos="108.35" speed="0.59" angle="78.17" x="235.67" y="51.95"/>
        <vehicle id="human_7" eclass="HBEFA3/PC_G_EU4" CO2="2703.73" CO="156.05" HC="0.77" NOx="1.23" PMx="0.06" fuel="1.16" electricity="0.00" noise="60.52" route="route155558218_0" type="human" waiting="0.00" lane="155558218_0" pos="157.96" speed="0.59" angle="78.17" x="284.21" y="62.12"/>
        <vehicle id="rl_0" eclass="HBEFA3/PC_G_EU4" CO2="2623.62" CO="164.06" HC="0.81" NOx="1.20" PMx="0.07" fuel="1.13" electricity="0.00" noise="57.66" route="route4794817_0" type="rl" waiting="0.60" lane="4794817_0" pos="5.01" speed="0.04" angle="114.03" x="4.57" y="205.26"/>
        <vehicle id="rl_1" eclass="HBEFA3/PC_G_EU4" CO2="2734.47" CO="162.08" HC="0.80" NOx="1.25" PMx="0.07" fuel="1.18" electricity="0.00" noise="64.76" route="route4794817_0" type="rl" waiting="0.00" lane="4794817_0" pos="55.16" speed="0.28" angle="114.03" x="50.38" y="184.83"/>
        <vehicle id="rl_2" eclass="HBEFA3/PC_G_EU4" CO2="2622.51" CO="164.06" HC="0.81" NOx="1.20" PMx="0.07" fuel="1.13" electricity="0.00" noise="57.15" route="route4794817_0" type="rl" waiting="0.60" lane="4794817_0" pos="103.72" speed="0.04" angle="114.03" x="94.73" y="165.05"/>
        <vehicle id="rl_3" eclass="HBEFA3/PC_G_EU4" CO2="0.00" CO="0.00" HC="0.00" NOx="0.00" PMx="0.00" fuel="0.00" electricity="0.00" noise="53.29" route="route4794817_0" type="rl" waiting="0.00" lane="4794817_0" pos="152.36" speed="0.12" angle="114.03" x="139.15" y="145.25"/>
        <vehicle id="rl_4" eclass="HBEFA3/PC_G_EU4" CO2="0.00" CO="0.00" HC="0.00" NOx="0.00" PMx="0.00" fuel="0.00" electricity="0.00" noise="52.84" route="route4794817_0" type="rl" waiting="0.10" lane="4794817_0" pos="200.98" speed="0.09" angle="113.29" x="183.75" y="125.90"/>
    </timestep>
    <timestep time="0.80">
        <vehicle id="human_0" eclass="HBEFA3/PC_G_EU4" CO2="2716.58" CO="154.65" HC="0.77" NOx="1.23" PMx="0.06" fuel="1.17" electricity="0.00" noise="60.54" route="route-100822066_0" type="human" waiting="0.00" lane="-100822066_0" pos="5.28" speed="0.69" angle="177.41" x="288.88" y="305.52"/>
        <vehicle id="human_1" eclass="HBEFA3/PC_G_EU4" CO2="2716.58" CO="154.65" HC="0.77" NOx="1.23" PMx="0.06" fuel="1.17" electricity="0.00" noise="60.54" route="route-100822066_0" type="human" waiting="0.00" lane="-100822066_1" pos="5.28" speed="0.69" angle="177.40" x="292.07" y="305.66"/>
        <vehicle id="human_2" eclass="HBEFA3/PC_G_EU4" CO2="2717.44" CO="154.64" HC="0.77" NOx="1.23" PMx="0.06" fuel="1.17" electricity="0.00" noise="60.56" route="route-100822066_0" type="human" waiting="0.00" lane="-100822066_0" pos="54.88" speed="0.69" angle="177.41" x="291.12" y="255.97"/>
        <vehicle id="human_3" eclass="HBEFA3/PC_G_EU4" CO2="2717.44" CO="154.64" HC="0.77" NOx="1.23" PMx="0.06" fuel="1.17" electricity="0.00" noise="60.56" route="route-100822066_0" type="human" waiting="0.00" lane="-100822066_1" pos="54.88" speed="0.69" angle="177.40" x="294.32" y="256.11"/>
        <vehicle id="human_4" eclass="HBEFA3/PC_G_EU4" CO2="2716.58" CO="154.65" HC="0.77" NOx="1.23" PMx="0.06" fuel="1.17" electricity="0.00" noise="60.54" route="route155558218_0" type="human" waiting="0.00" lane="155558218_0" pos="9.22" speed="0.69" angle="78.17" x="138.64" y="31.63"/>